data_2-TOPOS_16710_CaCO3/Calcite
_database_code_CSD                  16710
_audit_creation_date                2020-11-10
_audit_creation_method              ToposPro
_chemical_formula_structural        CaCO3/Calcite
_chemical_name_systematic
;
Calcium carbonate  MINR Calcite - synthetic 
;
_chemical_formula_sum               'C1 Ca1 O3'
_citation_journal_abbrev            'Acta Crystallographica (1,1948-23,1967)'
_citation_year                      1957
_citation_journal_volume            10
_citation_page_first                567
_citation_page_last                 570
_citation_special_details
;
 TITL Interatomic Distances and Thermal Anisotropy in Sodium Nitrate 
 Calcite  (refinement of earlier measured intensity data) M PDF 5-586
;
loop_
_publ_author_name
'Sass R L'
'Vidale R'
'Donohue J'
_cell_length_a                      4.989
_cell_length_b                      4.989
_cell_length_c                      17.062
_cell_angle_alpha                   90
_cell_angle_beta                    90
_cell_angle_gamma                   120
_cell_volume                        367.7795
_cell_formula_units_Z               6
_symmetry_space_group_name_H-M      'R -3 c'
_symmetry_Int_Tables_number         167
_refine_ls_R_factor_all             0
loop_
_symmetry_equiv_pos_site_id
_symmetry_equiv_pos_as_xyz
1 x,y,z
2 -y,x-y,z
3 -x+y,-x,z
4 x-y,-y,1/2-z
5 -x,-x+y,1/2-z
6 y,x,1/2-z
7 -x,-y,-z
8 y,-x+y,-z
9 x-y,x,-z
10 -x+y,y,1/2+z
11 x,x-y,1/2+z
12 -y,-x,1/2+z
13 2/3+x,1/3+y,1/3+z
14 1/3+x,2/3+y,2/3+z
15 2/3-y,1/3+x-y,1/3+z
16 1/3-y,2/3+x-y,2/3+z
17 2/3-x+y,1/3-x,1/3+z
18 1/3-x+y,2/3-x,2/3+z
19 2/3+x-y,1/3-y,5/6-z
20 1/3+x-y,2/3-y,1/6-z
21 2/3-x,1/3-x+y,5/6-z
22 1/3-x,2/3-x+y,1/6-z
23 2/3+y,1/3+x,5/6-z
24 1/3+y,2/3+x,1/6-z
25 2/3-x,1/3-y,1/3-z
26 1/3-x,2/3-y,2/3-z
27 2/3+y,1/3-x+y,1/3-z
28 1/3+y,2/3-x+y,2/3-z
29 2/3+x-y,1/3+x,1/3-z
30 1/3+x-y,2/3+x,2/3-z
31 2/3-x+y,1/3+y,5/6+z
32 1/3-x+y,2/3+y,1/6+z
33 2/3+x,1/3+x-y,5/6+z
34 1/3+x,2/3+x-y,1/6+z
35 2/3-y,1/3-x,5/6+z
36 1/3-y,2/3-x,1/6+z
loop_
_atom_type_symbol
_atom_type_oxidation_number
C4+ 4
O2- -2
Ca2+ 2
loop_
_atom_site_label
_atom_site_type_symbol
_atom_site_symmetry_multiplicity
_atom_site_fract_x
_atom_site_fract_y
_atom_site_fract_z
_atom_site_occupancy
C1 C4+ 6 0.00000 0.00000 0.25000 1.0000
O1 O2- 18 0.25930 0.00000 0.25000 1.0000
Ca1 Ca2+ 6 0.00000 0.00000 0.00000 1.0000
loop_
_topol_link.node_label_1
_topol_link.node_label_2
_topol_link.distance
_topol_link.site_symmetry_symop_1
_topol_link.site_symmetry_translation_1_x
_topol_link.site_symmetry_translation_1_y
_topol_link.site_symmetry_translation_1_z
_topol_link.site_symmetry_symop_2
_topol_link.site_symmetry_translation_2_x
_topol_link.site_symmetry_translation_2_y
_topol_link.site_symmetry_translation_2_z
_topol_link.type
_topol_link.multiplicity
_topol_link.voronoi_solidangle
C1 O1 1.2936 1 0 0 0 3 0 0 0 v 18 29.35
C1 O1 3.4063 1 0 0 0 26 0 -1 0 vw 36 1.99
O1 Ca1 2.3533 1 0 0 0 20 0 -1 0 v 36 16.15
O1 O1 3.1889 1 0 0 0 26 0 -1 0 vw 18 5.37
O1 O1 3.2479 1 0 0 0 2 0 -1 0 vw 36 3.26
#End of data_2-TOPOS_16710_CaCO3/Calcite

