data_362-TOPOS_cds_cds
_database_code_TOPOS                cds
_audit_creation_date                2020-11-17
_audit_creation_method              ToposPro
_chemical_formula_structural        cds
_chemical_formula_sum               C1
_citation_journal_abbrev            J.ENERG.MATER.
_citation_special_details
;
CENTAT: none
LIGAND: C[3D-]
ATOMLIG: C1#1
SIMPPAR: METH=Stand; INT
RA=V
;
_cell_length_a                      1.5
_cell_length_b                      1.5
_cell_length_c                      3
_cell_angle_alpha                   90
_cell_angle_beta                    90
_cell_angle_gamma                   90
_cell_volume                        6.75
_cell_formula_units_Z               2
_symmetry_space_group_name_H-M      'P 42/m m c'
_symmetry_Int_Tables_number         131
_refine_ls_R_factor_all             0
loop_
_symmetry_equiv_pos_site_id
_symmetry_equiv_pos_as_xyz
1 x,y,z
2 -x,-y,z
3 x,-y,-z
4 -x,y,-z
5 -y,-x,1/2-z
6 y,x,1/2-z
7 y,-x,1/2+z
8 -y,x,1/2+z
9 -x,-y,-z
10 x,y,-z
11 -x,y,z
12 x,-y,z
13 y,x,1/2+z
14 -y,-x,1/2+z
15 -y,x,1/2-z
16 y,-x,1/2-z
loop_
_atom_site_label
_atom_site_type_symbol
_atom_site_symmetry_multiplicity
_atom_site_fract_x
_atom_site_fract_y
_atom_site_fract_z
_atom_site_occupancy
C1 C 2 0.00000 0.00000 0.00000 1.0000
loop_
_topol_link.node_label_1
_topol_link.node_label_2
_topol_link.distance
_topol_link.site_symmetry_symop_1
_topol_link.site_symmetry_translation_1_x
_topol_link.site_symmetry_translation_1_y
_topol_link.site_symmetry_translation_1_z
_topol_link.site_symmetry_symop_2
_topol_link.site_symmetry_translation_2_x
_topol_link.site_symmetry_translation_2_y
_topol_link.site_symmetry_translation_2_z
_topol_link.type
_topol_link.multiplicity
_topol_link.voronoi_solidangle
C1 C1 1.5000 1 0 0 0 5 0 0 -1 v 2 0.00
C1 C1 1.5000 1 0 0 0 1 0 -1 0 v 2 0.00
#End of data_362-TOPOS_cds_cds

