data_9453-TOPOS_MNFORD04_mab
_database_code_CSD                  MNFORD04
_audit_creation_date                2020-02-13
_audit_creation_method              ToposPro
_chemical_formula_structural        mab
_chemical_name_systematic
;
catena-(tetrakis(\m~2~-Formato-O,O')-tetra-aqua-di-manganese). 
;
_chemical_formula_sum               Mn1
_citation_journal_abbrev            Chem.-Eur.J.
_citation_year                      2007
_citation_journal_volume            13
_citation_page_first                9775
_citation_special_details
;
Experiment details: magnetic propertiesThe unit cell parameters are f
rom an unpublished 15K single crystal X-rayexperiment. Experiment det
ails: charge density study. File: search24.cif. 
CENTAT: Mn1 Mn2
SI
MPLIG: Sc=CHO2 Ti=H2O
;
loop_
_publ_author_name
'Poulsen R.D.'
'Jorgensen M.R.V.'
'Overgaard J.'
'Larsen F.K.'
'Morgenroth W.'
'Graber T.'
'Yu-Sheng CHEN'
'Iversen B.B.'
_cell_length_a                      8.809
_cell_length_b                      7.199
_cell_length_c                      9.619
_cell_angle_alpha                   90
_cell_angle_beta                    97.69
_cell_angle_gamma                   90
_cell_volume                        604.5125
_cell_formula_units_Z               2
_symmetry_space_group_name_H-M      'P 21/c'
_symmetry_Int_Tables_number         14
_refine_ls_R_factor_all             0.023
loop_
_symmetry_equiv_pos_site_id
_symmetry_equiv_pos_as_xyz
1 x,y,z
2 -x,1/2+y,1/2-z
3 -x,-y,-z
4 x,1/2-y,1/2+z
loop_
_atom_site_label
_atom_site_type_symbol
_atom_site_symmetry_multiplicity
_atom_site_fract_x
_atom_site_fract_y
_atom_site_fract_z
_atom_site_occupancy
Mn1 Mn 2 0.00000 0.00000 0.00000 1.0000
loop_
_topol_link.node_label_1
_topol_link.node_label_2
_topol_link.distance
_topol_link.site_symmetry_symop_1
_topol_link.site_symmetry_translation_1_x
_topol_link.site_symmetry_translation_1_y
_topol_link.site_symmetry_translation_1_z
_topol_link.site_symmetry_symop_2
_topol_link.site_symmetry_translation_2_x
_topol_link.site_symmetry_translation_2_y
_topol_link.site_symmetry_translation_2_z
_topol_link.type
_topol_link.multiplicity
_topol_link.voronoi_solidangle
Mn1 Mn1 6.0073 1 0 0 0 2 0 0 -1 v 4 16.94
Mn1 Mn1 11.3765 1 0 0 0 1 -1 1 0 v 2 16.48
#End of data_9453-TOPOS_MNFORD04_mab

