data_1-TOPOS_MOXPUL_C69H72Cu4N4O20
_database_code_CSD                  MOXPUL
_audit_creation_date                2021-09-10
_audit_creation_method              ToposPro
_chemical_formula_structural        'C69 H72 Cu4 N4 O20'
_chemical_name_systematic
;
catena-((\m~4~-tetrakis((3-Methyl-4-(4-pyridinyl)phenoxy)-methyl)meth
ane)-octakis(\m~2~-acetato)-tetra-copper(ii) unknown solvate). 
;
_chemical_formula_sum               'C89 Cu4 H104 N4 O20 ZA1'
_citation_journal_abbrev            INORG.CHEM.
_citation_year                      2009
_citation_journal_volume            48
_citation_page_first                2793
_citation_special_details
;
Details: The authors report that the crystal has an approximate compo
sition of thatgiven in the paper, but also includes an undetermined a
mount of disorderedunspecified guests, which have not been identified
 or modelled. The authorsreport that the density is calculated with n
o solvent included. Details: Disordered solvent molecules were not mo
delled and the disordered density wastaken into account using the SQU
EEZE/PLATON procedure. The solvent isunspecified but 1041 electrons p
er unit cell were located in the void. A3-methylphenoxy moiety is dis
ordered over two sites with occupancies of0.503:0.497.. File: m.cif. 

LIGAND: C73H72N4O4[K4]* C2H3O2[B2] C2H3O2[B2] H[0D] H[0D]
CENTAT: 
Cu1
SIMPLIG: ZA=C73H72N4O4 ZB=H ZC=C2H3O2 ZD=Cu
SIMPPAR: METH=Stand
;
loop_
_publ_author_name
'Ryan P.E.'
'Lescop C.'
'Laliberte D.'
'Hamilton T.'
'Maris T.'
'Wuest J.D.'
_cell_length_a                      30.337
_cell_length_b                      30.337
_cell_length_c                      7.423
_cell_angle_alpha                   90
_cell_angle_beta                    90
_cell_angle_gamma                   90
_cell_volume                        6831.636
_cell_formula_units_Z               2
_symmetry_space_group_name_H-M      'P 42/n'
_symmetry_Int_Tables_number         86
_refine_ls_R_factor_all             0.0616
loop_
_symmetry_equiv_pos_site_id
_symmetry_equiv_pos_as_xyz
1 x,y,z
2 1/2-x,1/2-y,z
3 -y,1/2+x,1/2+z
4 1/2+y,-x,1/2+z
5 -x,-y,-z
6 1/2+x,1/2+y,-z
7 y,1/2-x,1/2-z
8 1/2-y,x,1/2-z
loop_
_atom_site_label
_atom_site_type_symbol
_atom_site_symmetry_multiplicity
_atom_site_fract_x
_atom_site_fract_y
_atom_site_fract_z
_atom_site_occupancy
H1 H 8 0.45990 0.46020 0.48850 1.0000
H2 H 8 0.42200 0.42150 0.70380 1.0000
H3 H 8 0.36040 0.36050 0.30300 1.0000
H4 H 8 0.39920 0.39940 0.10540 1.0000
H5 H 8 0.34100 0.44320 0.72170 1.0000
H6 H 8 0.33470 0.43900 0.93280 1.0000
H7 H 8 0.29410 0.43150 0.80210 1.0000
H8 H 8 0.29650 0.37350 0.02900 1.0000
H9 H 8 0.33970 0.26180 0.78300 1.0000
H10 H 8 0.37640 0.30540 0.57510 1.0000
H11 H 8 0.24190 0.29410 0.03940 1.0000
H12 H 8 0.27040 0.31400 0.19890 1.0000
H13 H 8 0.44330 0.34130 0.72450 1.0000
H14 H 8 0.43150 0.29440 0.80450 1.0000
H15 H 8 0.43880 0.33500 0.93550 1.0000
H16 H 8 0.37340 0.29710 0.03080 1.0000
H17 H 8 0.26170 0.33920 0.78140 1.0000
H18 H 8 0.30530 0.37600 0.57410 1.0000
H19 H 8 0.31300 0.26820 0.18980 1.0000
H20 H 8 0.29060 0.24040 0.03440 1.0000
H21 H 8 0.51780 0.37060 0.72620 1.0000
H22 H 8 0.52690 0.40340 0.56450 1.0000
H23 H 8 0.56500 0.39230 0.70330 1.0000
H24 H 8 0.62950 0.48240 0.27700 1.0000
H25 H 8 0.60820 0.43490 0.29250 1.0000
H26 H 8 0.59650 0.47160 0.43650 1.0000
C1 C 2 0.25000 0.25000 0.25000 1.0000
C2 C 8 0.38679 0.38626 0.53320 1.0000
C3 C 8 0.43916 0.43911 0.45060 1.0000
C4 C 8 0.41646 0.41607 0.58120 1.0000
C5 C 8 0.38111 0.38100 0.34560 1.0000
C6 C 8 0.40417 0.40417 0.22880 1.0000
C7 C 8 0.36040 0.36058 0.66970 1.0000
C8 C 8 0.31417 0.31420 0.92520 1.0000
C9 C 8 0.33619 0.38080 0.80660 1.0000
C10 C 8 0.32560 0.42750 0.81660 1.0000
C11 C 8 0.31240 0.35880 0.93840 1.0000
C12 C 8 0.33840 0.29270 0.79000 1.0000
C13 C 8 0.36030 0.31940 0.66720 1.0000
C14 C 8 0.26530 0.28750 0.12640 1.0000
C15 C 8 0.38060 0.33657 0.80790 1.0000
C16 C 8 0.42750 0.32590 0.81900 1.0000
C17 C 8 0.35870 0.31280 0.93960 1.0000
C18 C 8 0.29260 0.33810 0.78910 1.0000
C19 C 8 0.31930 0.36020 0.66667 1.0000
C20 C 8 0.53350 0.39694 0.68960 1.0000
C21 C 8 0.51975 0.43395 0.80220 1.0000
C22 C 8 0.56614 0.48059 0.19890 1.0000
C23 C 8 0.60320 0.46610 0.31070 1.0000
N1 N 8 0.43362 0.43351 0.27520 1.0000
O1 O 8 0.52943 0.46349 0.23320 1.0000
O2 O 8 0.49176 0.42773 0.92470 1.0000
O3 O 8 0.57219 0.50832 0.07510 1.0000
O4 O 8 0.53659 0.47085 0.76540 1.0000
O5 O 8 0.30290 0.27720 0.03570 1.0000
Cu1 Cu 8 0.47409 0.47419 0.09665 1.0000
ZA1 ZA 2 0.25000 0.25000 0.25000 1.0000
loop_
_topol_link.node_label_1
_topol_link.node_label_2
_topol_link.distance
_topol_link.site_symmetry_symop_1
_topol_link.site_symmetry_translation_1_x
_topol_link.site_symmetry_translation_1_y
_topol_link.site_symmetry_translation_1_z
_topol_link.site_symmetry_symop_2
_topol_link.site_symmetry_translation_2_x
_topol_link.site_symmetry_translation_2_y
_topol_link.site_symmetry_translation_2_z
_topol_link.type
_topol_link.multiplicity
_topol_link.voronoi_solidangle
H1 C3 0.9404 1 0 0 0 1 0 0 0 v 8 0.00
H2 C4 0.9400 1 0 0 0 1 0 0 0 v 8 0.00
H3 C5 0.9389 1 0 0 0 1 0 0 0 v 8 0.00
H4 C6 0.9395 1 0 0 0 1 0 0 0 v 8 0.00
H5 C10 0.9702 1 0 0 0 1 0 0 0 v 8 0.00
H6 C10 0.9705 1 0 0 0 1 0 0 0 v 8 0.00
H7 C10 0.9693 1 0 0 0 1 0 0 0 v 8 0.00
H8 C11 0.9401 1 0 0 0 1 0 0 -1 v 8 0.00
H9 C12 0.9397 1 0 0 0 1 0 0 0 v 8 0.00
H10 C13 0.9415 1 0 0 0 1 0 0 0 v 8 0.00
H11 C14 0.9804 1 0 0 0 1 0 0 0 v 8 0.00
H12 C14 0.9797 1 0 0 0 1 0 0 0 v 8 0.00
H13 C16 0.9696 1 0 0 0 1 0 0 0 v 8 0.00
H14 C16 0.9693 1 0 0 0 1 0 0 0 v 8 0.00
H15 C16 0.9703 1 0 0 0 1 0 0 0 v 8 0.00
H16 C17 0.9402 1 0 0 0 1 0 0 -1 v 8 0.00
H17 C18 0.9397 1 0 0 0 1 0 0 0 v 8 0.00
H18 C19 0.9393 1 0 0 0 1 0 0 0 v 8 0.00
H21 C20 0.9691 1 0 0 0 1 0 0 0 v 8 0.00
H22 C20 0.9700 1 0 0 0 1 0 0 0 v 8 0.00
H23 C20 0.9713 1 0 0 0 1 0 0 0 v 8 0.00
H24 C23 0.9714 1 0 0 0 1 0 0 0 v 8 0.00
H25 C23 0.9681 1 0 0 0 1 0 0 0 v 8 0.00
H26 C23 0.9701 1 0 0 0 1 0 0 0 v 8 0.00
C1 C14 1.5334 1 0 0 0 2 0 0 0 v 8 0.00
C2 C4 1.3248 1 0 0 0 1 0 0 0 v 8 0.00
C2 C5 1.4122 1 0 0 0 1 0 0 0 v 8 0.00
C2 C7 1.5082 1 0 0 0 1 0 0 0 v 8 0.00
C3 N1 1.3237 1 0 0 0 1 0 0 0 v 8 0.00
C3 C4 1.3794 1 0 0 0 1 0 0 0 v 8 0.00
C5 C6 1.3173 1 0 0 0 1 0 0 0 v 8 0.00
C6 N1 1.3073 1 0 0 0 1 0 0 0 v 8 0.00
C7 C19 1.2471 1 0 0 0 1 0 0 0 v 8 0.00
C7 C13 1.2494 1 0 0 0 1 0 0 0 v 8 0.00
C7 C9 1.3958 1 0 0 0 1 0 0 0 v 8 0.00
C7 C15 1.3995 1 0 0 0 1 0 0 0 v 8 0.00
C8 C17 1.3558 1 0 0 0 1 0 0 0 v 8 0.00
C8 C11 1.3576 1 0 0 0 1 0 0 0 v 8 0.00
C8 C12 1.4046 1 0 0 0 1 0 0 0 v 8 0.00
C8 C18 1.4052 1 0 0 0 1 0 0 0 v 8 0.00
C8 O5 1.4317 1 0 0 0 1 0 0 1 v 8 0.00
C9 C19 1.3161 1 0 0 0 1 0 0 0 v 8 0.00
C9 C11 1.3869 1 0 0 0 1 0 0 0 v 8 0.00
C9 C10 1.4546 1 0 0 0 1 0 0 0 v 8 0.00
C11 C18 1.4083 1 0 0 0 1 0 0 0 v 8 0.00
C12 C13 1.3887 1 0 0 0 1 0 0 0 v 8 0.00
C12 C17 1.4086 1 0 0 0 1 0 0 0 v 8 0.00
C13 C15 1.3196 1 0 0 0 1 0 0 0 v 8 0.00
C14 O5 1.3609 1 0 0 0 1 0 0 0 v 8 0.00
C15 C17 1.3846 1 0 0 0 1 0 0 0 v 8 0.00
C15 C16 1.4615 1 0 0 0 1 0 0 0 v 8 0.00
C18 C19 1.3898 1 0 0 0 1 0 0 0 v 8 0.00
C20 C21 1.4606 1 0 0 0 1 0 0 0 v 8 0.00
C21 O2 1.2584 1 0 0 0 1 0 0 0 v 8 0.00
C21 O4 1.2605 1 0 0 0 1 0 0 0 v 8 0.00
C22 O1 1.2547 1 0 0 0 1 0 0 0 v 8 0.00
C22 O3 1.2593 1 0 0 0 1 0 0 0 v 8 0.00
C22 C23 1.4649 1 0 0 0 1 0 0 0 v 8 0.00
N1 Cu1 2.1879 1 0 0 0 1 0 0 0 v 8 0.00
O1 Cu1 1.9878 1 0 0 0 1 0 0 0 v 8 0.00
O2 Cu1 1.9756 1 0 0 0 1 0 0 1 v 8 0.00
O3 Cu1 1.9693 1 0 0 0 5 1 1 0 v 8 0.00
O4 Cu1 1.9833 1 0 0 0 5 1 1 1 v 8 0.00
Cu1 Cu1 2.6425 1 0 0 0 5 1 1 0 v 4 0.00
ZA1 ZA1 28.3645 1 0 0 0 3 1 0 -3 v 4 0.00
#End of data_1-TOPOS_MOXPUL_C69H72Cu4N4O20

