data_26-TOPOS_SAYMUB01_C18.03H16.02N2O4.02/srs18-foldH-bond
_database_code_TOPOS                SAYMUB01
_audit_creation_date                2020-11-17
_audit_creation_method              ToposPro
_chemical_formula_structural        'C18.03 H16.02 N2 O4.02/      srs  18-fold H-bond'
_chemical_name_systematic
;
bis(Benzene-1,3,5-tricarboxylic acid) tris(1,2-bis(4-pyridyl)ethane).
 
;
_chemical_formula_sum               'ZA2 ZB3'
_citation_journal_abbrev            'CRYST.GROWTH DES.'
_citation_year                      2005
_citation_journal_volume            5
_citation_page_first                2046
_citation_special_details
;
Details: orthorhombic polymorph. 
CENTAT: none
SIMPLIG: ZA=C9H6O6 Z
B=C12H12N2
SIMPPAR: METH=Stand; INTRA=V; INTER=H
;
loop_
_publ_author_name
'Shattock T.R.'
'Vishweshwar P.'
'Zhenqiang WANG'
'Zaworotko M.J.'
_cell_length_a                      19.27
_cell_length_b                      19.906
_cell_length_c                      25.249
_cell_angle_alpha                   90
_cell_angle_beta                    90
_cell_angle_gamma                   90
_cell_volume                        9685.23
_cell_formula_units_Z               8
_symmetry_space_group_name_H-M      'P b c a'
_symmetry_Int_Tables_number         61
_refine_ls_R_factor_all             0.0557
loop_
_symmetry_equiv_pos_site_id
_symmetry_equiv_pos_as_xyz
1 x,y,z
2 1/2-x,-y,1/2+z
3 1/2+x,1/2-y,-z
4 -x,1/2+y,1/2-z
5 -x,-y,-z
6 1/2+x,y,1/2-z
7 1/2-x,1/2+y,z
8 x,1/2-y,1/2+z
loop_
_atom_site_label
_atom_site_type_symbol
_atom_site_symmetry_multiplicity
_atom_site_fract_x
_atom_site_fract_y
_atom_site_fract_z
_atom_site_occupancy
ZA1 ZA 8 0.60057 0.25452 0.35726 1.0000
ZA2 ZA 8 0.87255 0.26362 0.59890 1.0000
ZB1 ZB 8 0.98143 0.23752 0.39408 1.0000
ZB2 ZB 8 0.66850 0.52164 0.72346 1.0000
ZB3 ZB 8 0.23258 0.41113 0.52817 1.0000
loop_
_topol_link.node_label_1
_topol_link.node_label_2
_topol_link.distance
_topol_link.site_symmetry_symop_1
_topol_link.site_symmetry_translation_1_x
_topol_link.site_symmetry_translation_1_y
_topol_link.site_symmetry_translation_1_z
_topol_link.site_symmetry_symop_2
_topol_link.site_symmetry_translation_2_x
_topol_link.site_symmetry_translation_2_y
_topol_link.site_symmetry_translation_2_z
_topol_link.type
_topol_link.multiplicity
_topol_link.voronoi_solidangle
ZA1 ZB1 10.4535 1 0 0 0 7 1 -1 0 v 8 33.41
ZA1 ZB3 10.5307 1 0 0 0 6 0 0 0 v 8 32.87
ZA1 ZB2 10.7462 1 0 0 0 1 0 0 0 v 8 33.72
ZA2 ZB3 10.2254 1 0 0 0 6 0 0 1 v 8 30.19
ZA2 ZB1 10.3664 1 0 0 0 5 2 0 1 v 8 37.18
ZA2 ZB2 10.4288 1 0 0 0 2 1 1 -1 v 8 32.63
#End of data_26-TOPOS_SAYMUB01_C18.03H16.02N2O4.02/srs18-foldH-bond

