#\#CIF_2.0
# topoCIF example 4 2021.09.01 (corrected BH)
data_1-TOPOS_FUBYUW_C4CO1O4-,LI1+/Z=2
_database_code_ICSD                 FUBYUW
_audit_creation_date                2021-04-28
_audit_creation_method              ToposPro
_chemical_formula_structural        'C4 CO1 O4 -, LI1 + /Z=2'
_chemical_name_systematic
;
LITHIUM TETRACARBONYL-COBALT 
;
_chemical_formula_sum               'C4 Co1 Li1 O4'
_citation_journal_abbrev            Z.KRISTALLOGR.
_citation_year                      1984
_citation_journal_volume            167
_citation_page_first                275
_citation_special_details
;
CENTAT: Li1 Co1
SIMPLIG: ZA=Li ZB=CO ZC=Co
SIMPPAR: METH=Stand; INT
RA=V
;
loop_
_publ_author_name
'Klufers P.'
_cell_length_a                      5.542
_cell_length_b                      5.542
_cell_length_c                      5.542
_cell_angle_alpha                   90
_cell_angle_beta                    90
_cell_angle_gamma                   90
_cell_volume                        170.2157
_cell_formula_units_Z               1
_symmetry_space_group_name_H-M      'P -4 3 m'
_symmetry_Int_Tables_number         215
_refine_ls_R_factor_all             0.0102
loop_
_symmetry_equiv_pos_site_id
_symmetry_equiv_pos_as_xyz
1 x,y,z
2 -x,-y,z
3 x,-y,-z
4 -x,y,-z
5 z,x,y
6 y,z,x
7 -z,-x,y
8 -y,z,-x
9 z,-x,-y
10 -y,-z,x
11 -z,x,-y
12 y,-z,-x
13 y,x,z
14 -y,-x,z
15 -y,x,-z
16 y,-x,-z
17 x,z,y
18 z,y,x
19 -x,-z,y
20 z,-y,-x
21 -x,z,-y
22 -z,-y,x
23 x,-z,-y
24 -z,y,-x
loop_
_atom_site_label
_atom_site_type_symbol
_atom_site_symmetry_multiplicity
_atom_site_fract_x
_atom_site_fract_y
_atom_site_fract_z
_atom_site_occupancy
Li1 Li 1 0.00000 0.00000 0.00000 1.0000
C1 C 4 0.31850 0.31850 0.31850 1.0000
O1 O 4 0.19920 0.19920 0.19920 1.0000
Co1 Co 1 0.50000 0.50000 0.50000 1.0000

loop_
_atom_type_symbol
_atom_type_oxidation_number
Co 3
O -1

loop_
_topol_net.id
_topol_net.label
_topol_net.special_details
_topol_net.overall_topology_TOPOS
1 Net_1 'Atomic net' 'Unknown'
2 Net_2 'Underlying net with carbonyl ligands as nodes' '2,4T3'

loop_
_topol_link.id
_topol_link.node_id_1
_topol_link.node_id_2
_topol_link.distance
_topol_link.symop_1
_topol_link.translation_1
_topol_link.symop_2
_topol_link.translation_2
_topol_link.type
_topol_link.multiplicity
1 1 3 1.9121 1 [0 0 0] 1 [0 0 0] v 4
2 2 3 1.1452 1 [0 0 0] 1 [0 0 0] v 4
3 2 4 1.7422 1 [0 0 0] 1 [0 0 0] v 4
4 5 6 2.4032 1 [0 0 0] 1 [0 0 0] v 4
5 6 7 2.3963 1 [0 0 0] 1 [0 0 0] v 4

loop_
_topol_node.id
_topol_node.label
_topol_node.net_id
_topol_node.chemical_formula_sum
_topol_node.atom_label
_topol_node.fract_x
_topol_node.fract_y
_topol_node.fract_z
1 Li1 1 . Li1 . . .
2 C1 1 . C1 . . .
3 O1 1 . O1 . . .
4 Co1 1 . Co1 . . .
5 ZA1 2 Li . 0.00000 0.00000 0.00000
6 ZB1 2 CO . 0.25036 0.25036 0.25036
7 ZC1 2 Co . 0.50000 0.50000 0.50000

loop_
_topol_atom.node_id
_topol_atom.atom_label
_topol_atom.element_symbol
6 C1 C
6 O1 O

#End of data_1-TOPOS_FUBYUW_C4CO1O4-,LI1+/Z=2
